# vtk DataFile Version 4.2
vtk output
ASCII
DATASET POLYDATA
POINTS 72 double
2.0986850808 0.36575763607 -0.74945413234 1.4378472815 0.54727812941 -1.5720042588 2.0053656419 1.1370999159 -0.34350933853 
1.4836708007 1.2442609098 -1.1710284034 0.8448736768 0.83222845803 -2.0175833411 0.35822824677 1.6958840025 -1.5651160167 
-0.60347165874 2.1377231378 -0.0052374028742 0.20104021486 2.1818532537 -0.58638795879 -0.64259519239 1.8903207558 -1.2925037032 
0.72790822057 1.8703194892 1.2638906448 0.45933918901 2.2887184219 0.41340982938 -0.10490587608 2.0747998901 0.98320420953 
1.5639784258 1.1140860983 1.5018050431 2.0528701035 0.91740216074 0.71395619897 1.5979890262 1.8111660167 0.41724244988 
-1.3154706566 1.7693757667 -0.55640823347 -1.5358745813 0.8833862551 -1.6809084927 -1.9033214131 0.91680657108 -0.93934805637 
-0.19532693792 1.4253833038 1.7473777834 -1.0480924046 1.1691248526 1.5106425614 -0.63605396357 0.83371284209 2.0861851299 
-1.7847794321 1.2387073168 0.46801477516 -2.1085516837 0.34136597776 0.35409116845 -1.7063188474 0.69622913945 1.1914707607 
0.21729854497 0.51352951095 2.2605756523 -0.6373437997 -0.12347559622 2.0873170933 0.22640614447 -0.43152807772 2.2102180512 
1.190310792 0.43450130366 2.0139987275 1.4079294052 -0.74434641342 1.6301468152 1.7678783223 -0.062324078454 1.5081463892 
-1.0642556714 -1.476579954 1.0719751168 -0.30278978994 -0.98454897882 1.8854554511 -1.3483693448 -0.79583893997 1.5027094807 
0.46516538972 -1.7094364009 1.3718748839 0.052061809045 -2.1075381822 0.3883705295 1.0017140988 -1.9673244591 0.49880627256 
1.2520144504 -1.3742906909 1.3590462502 1.7868716348 -1.3949067484 -0.030876873612 1.9641918834 -0.78537922037 0.75856577103 
-1.9363371193 -0.3345679046 1.0077495933 -2.033193045 -0.72644958543 0.4100656249 -1.7068981989 -1.0493107238 0.82453756012 
-0.55444020854 -1.863992979 -1.1139589265 0.27750840945 -2.1500740179 -0.44171635743 -1.0132405964 -1.9535250135 -0.46108353107 
-1.355435906 -1.5276459903 -0.96970500373 -1.7522449233 -1.4276287695 -0.19744947929 -1.8799098933 -0.90863027947 -0.84096592401 
0.32998815214 -1.1352678663 -1.9773709552 1.2641033343 -0.94753696608 -1.5922026635 0.4470604092 -1.6203761417 -1.4678373855 
2.1906518227 -0.48671050223 -0.36333073566 1.8018744303 -1.0873651739 -0.81590752053 1.8384246935 -0.18560472263 -1.3011684703 
-0.35098909414 -0.50173144224 -2.2245935628 -0.3458499436 0.3549544881 -2.2616357158 0.47319059409 -0.30853125536 -2.2322753821 
-1.4672943308 -0.67697170634 -1.675334379 -1.9031544129 0.095795916755 -1.2986156322 -1.4627356553 0.19385966845 -1.8608870403 
-0.91569817793 1.3381142689 -1.7922177145 -0.49647337215 -1.3140715503 -1.800873393 -2.1823260408 -0.14096912973 -0.51275813014 
1.3556835779 -0.27267033733 -1.7875606907 2.1127978958 -0.039104292764 0.75081014859 1.1539811558 -1.7925245027 -0.63777590986 
-1.0116688116 -1.846972375 0.43732166673 -1.3250674259 0.03759750387 1.7277377792 0.62945373588 -1.1391753321 1.8574258766 
0.48236596224 1.2892910526 1.917649949 -1.0982100197 1.8248174933 0.54438481837 1.1344055909 1.9557866275 -0.5894588974 

POLYGONS 140 560
3 12 9 69 
3 35 33 34 
3 70 21 19 
3 55 4 56 
3 2 14 13 
3 38 36 37 
3 26 27 24 
3 36 38 28 
3 36 35 37 
3 26 68 28 
3 69 18 24 
3 29 13 12 
3 20 18 19 
3 12 14 9 
3 60 16 15 
3 10 71 7 
3 10 6 11 
3 28 38 29 
3 46 66 41 
3 17 62 22 
3 22 40 39 
3 63 56 4 
3 41 30 32 
3 57 61 45 
3 54 61 57 
3 5 7 71 
3 66 30 41 
3 45 42 44 
3 30 31 32 
3 33 35 36 
3 65 37 35 
3 51 38 37 
3 36 68 33 
3 38 64 29 
3 29 64 13 
3 64 38 51 
3 31 68 26 
3 68 36 28 
3 37 65 52 
3 54 56 48 
3 66 34 30 
3 43 65 35 
3 30 33 31 
3 30 34 33 
3 22 39 23 
3 41 32 39 
3 40 41 39 
3 32 67 39 
3 67 32 25 
3 33 68 31 
3 32 31 25 
3 31 26 25 
3 25 24 20 
3 26 28 27 
3 28 29 27 
3 11 18 9 
3 25 20 67 
3 19 21 23 
3 26 24 25 
3 24 18 20 
3 29 12 27 
3 12 13 14 
3 12 69 27 
3 69 24 27 
3 69 9 18 
3 9 14 10 
3 18 11 19 
3 11 9 10 
3 71 10 14 
3 57 59 54 
3 2 71 14 
3 21 17 22 
3 6 10 7 
3 21 70 15 
3 70 11 6 
3 70 19 11 
3 19 67 20 
3 19 23 67 
3 23 39 67 
3 21 22 23 
3 16 58 17 
3 17 58 62 
3 41 40 46 
3 22 62 40 
3 45 46 47 
3 15 17 21 
3 16 59 58 
3 8 6 7 
3 15 6 8 
3 6 15 70 
3 15 16 17 
3 5 8 7 
3 55 59 60 
3 3 4 5 
3 2 3 71 
3 3 5 71 
3 59 16 60 
3 1 4 3 
3 60 8 5 
3 59 55 54 
3 55 5 4 
3 55 60 5 
3 60 15 8 
3 65 43 50 
3 56 63 49 
3 61 54 48 
3 54 55 56 
3 61 50 42 
3 48 56 49 
3 59 57 58 
3 47 62 58 
3 57 45 47 
3 44 34 66 
3 57 47 58 
3 47 40 62 
3 66 46 44 
3 46 40 47 
3 45 44 46 
3 49 65 50 
3 37 52 51 
3 65 49 52 
3 44 43 34 
3 43 35 34 
3 61 42 45 
3 42 43 44 
3 51 52 53 
3 50 48 49 
3 52 49 53 
3 4 1 63 
3 48 50 61 
3 50 43 42 
3 49 63 53 
3 63 1 53 
3 2 0 3 
3 3 0 1 
3 1 0 53 
3 51 53 0 
3 64 51 0 
3 13 64 0 
3 2 13 0 

POINT_DATA 72
SCALARS PointIds vtkIdType
LOOKUP_TABLE default
0 1 2 3 4 5 6 7 8 
9 10 11 12 13 14 15 16 17 
18 19 20 21 22 23 24 25 26 
27 28 29 30 31 32 33 34 35 
36 37 38 39 40 41 42 43 44 
45 46 47 48 49 50 51 52 53 
54 55 56 57 58 59 60 61 62 
63 64 65 66 67 68 69 70 71 

NORMALS PointNormals double
0.9369670067 0.16779916122 -0.30649024431 0.70908891917 0.20318821413 -0.67520919303 0.84195246204 0.49773736001 -0.20826322794 
0.67479036342 0.48988487459 -0.55196990415 0.45586570188 0.26539361466 -0.84956029283 0.17805758145 0.72518112954 -0.66513744974 
-0.27970151359 0.96008246574 0.0029533492356 0.039060127544 0.96594798236 -0.25577099487 -0.22727235113 0.88860990852 -0.39839642178 
0.22555845677 0.79189681273 0.56747054599 0.12888165792 0.98573423036 0.10824761126 -0.21707527526 0.87271419823 0.43731939482 
0.62857913043 0.4498246275 0.63446519313 0.93323140291 0.28483945295 0.2189649165 0.64583228728 0.74497879306 0.16705464554 
-0.61747966954 0.76678051894 -0.17540380121 -0.73882883848 0.36988386858 -0.56330974711 -0.91505557401 0.34448739375 -0.20976589816 
-0.15521521394 0.63411234145 0.75750232724 -0.54997347066 0.5592551351 0.62029257245 -0.37335034704 0.30173450016 0.87724900101 
-0.80781138577 0.5404278337 0.23532641497 -0.97455870703 0.13959042614 0.17535632146 -0.80685406673 0.26858467676 0.52616422001 
-0.0025326756987 0.19976991011 0.97983956267 -0.33526183883 -0.13334606832 0.93264051246 0.086964026386 -0.24141021205 0.96651868458 
0.44542623404 0.094120925042 0.89035763685 0.57959643785 -0.32625190722 0.74674471024 0.81963254876 -0.046812564976 0.57097378991 
-0.39905846439 -0.7389613364 0.54285217629 -0.21400581612 -0.51481753445 0.830159272 -0.57400155055 -0.38936708533 0.72035789218 
0.049673264524 -0.80334344429 0.59344071087 -0.10744422039 -0.96581005246 0.23593787756 0.37008673828 -0.91243258718 0.1746498783 
0.55659779957 -0.63647254818 0.53394904712 0.77515897932 -0.63152029173 0.017626057533 0.87690380417 -0.34614691359 0.33349967383 
-0.86116871895 -0.13188501173 0.49091219294 -0.94411215208 -0.29577353065 0.14550004418 -0.728674967 -0.5542007452 0.40236094055 
-0.19163857379 -0.86385193167 -0.46586961394 0.082175939712 -0.97684660372 -0.19752930854 -0.37189290332 -0.9215239761 -0.11175522325 
-0.57091234818 -0.69249422265 -0.4410338335 -0.7489528651 -0.66261777006 0.0027012331876 -0.8730705372 -0.37825211338 -0.30769006449 
0.15368238219 -0.50737261289 -0.84791199844 0.55130639229 -0.45978853775 -0.69617222178 0.18684470399 -0.78048724778 -0.59659761367 
0.96258350976 -0.24047520392 -0.12491862571 0.78126149616 -0.49281908908 -0.38309244324 0.81172914214 -0.11413416089 -0.57277324756 
-0.18267458327 -0.25371853404 -0.94987204513 -0.079705630354 0.18648353769 -0.97921953752 0.2710153467 -0.14605834308 -0.95142926288 
-0.62081998368 -0.35968377696 -0.69657026096 -0.87873020337 -0.013416526673 -0.47713019869 -0.56551839243 0.043356090309 -0.8235952873 
-0.37465174837 0.5726533858 -0.72918047641 -0.22263449401 -0.63181555747 -0.74245739502 -0.98852212977 -0.049326981026 -0.14279652623 
0.60685334976 -0.056763531519 -0.79278427922 0.97645744623 -0.048054286998 0.21028942249 0.50326837174 -0.80351953858 -0.31792655934 
-0.46892124152 -0.84244687911 0.26532268113 -0.63835834281 0.046293438462 0.76834597918 0.20867087779 -0.52572120352 0.82466579954 
0.18802832839 0.51815948693 0.83435969092 -0.52118425665 0.80901972339 0.27176103067 0.46877198386 0.83298290691 -0.29392567759 

