# vtk DataFile Version 4.2
vtk output
ASCII
DATASET POLYDATA
POINTS 72 double
2.0958144158 0.36655720069 -0.38848172455 1.4234355079 0.89036914818 -1.1874323165 2.0062395631 1.1773880919 -0.60344510983 
1.0298219172 1.5359122172 -1.044354292 0.93486841314 0.5034754904 -1.7860706517 0.40573417385 1.1670199004 -1.5288704544 
-0.24871990769 2.2027720059 -0.2084369942 0.1672786531 2.1082391657 -1.1573956985 -0.6226267948 1.6387191863 -1.3346183299 
0.68937734926 1.7197802419 0.96312753389 0.5590524504 2.1813030435 0.30175741759 -0.20069452533 1.8942164539 1.2084051129 
1.1782621374 0.99722019643 1.2609723135 1.5655918364 0.94578807883 0.23723340213 1.4335640372 1.6913499371 0.36475002328 
-1.1008894606 1.1597267018 -0.57654296634 -1.5688886162 1.0789770083 -1.3561310695 -2.0257807226 0.49979715213 -0.29152311442 
-0.04332093959 1.6970495521 2.069531244 -1.104902863 1.7813694771 1.2462573836 -0.66574801091 0.91652355384 1.9405729986 
-1.7959121623 1.1750148302 0.69720735654 -2.1783125911 0.16210700072 0.50715506711 -1.4939684759 0.76444765679 1.1885203089 
0.25257751922 0.70420882707 2.3184491505 -0.53360213042 -0.34428306888 2.3176579258 0.49201920196 -0.37274951195 2.1364529369 
1.0030188325 0.46983247242 2.2677994345 1.3248295397 -0.39642791044 1.8840360205 1.8186675578 0.22180537035 1.55695693 
-1.0421708084 -1.9010059065 1.2355252184 -0.083369476149 -1.0004914313 2.1338109492 -1.3079796157 -0.95296073581 1.5451267164 
0.23691766084 -1.6401885098 0.85503579326 -0.028532716939 -1.9308177834 0.15294947508 0.94682615522 -1.7988396188 0.41331491389 
1.2238020069 -1.2922904125 1.1650398993 1.2998292511 -1.4169635872 0.024687572887 1.6267056514 -0.56338092093 0.88787012635 
-1.6617384864 -0.43238283134 1.0748127968 -1.8280949846 -0.75617512011 0.17338308067 -1.5457186408 -1.4769361555 0.65558583203 
-0.26759730056 -1.7719940981 -1.0919407734 0.17875359062 -2.2918839152 -0.52565642332 -1.0093637897 -1.8967319555 -0.52025250901 
-1.5444901655 -1.3171990968 -1.3052281899 -1.6103974858 -1.3347700075 -0.42726302689 -2.0760365011 -0.41655202897 -1.0287151766 
0.0061813284965 -1.0138648304 -1.7636548307 1.5711441669 -1.0686662446 -1.8874507287 0.65106447901 -1.3502488906 -1.3748737046 
1.8326330221 -0.85126609671 -0.37856329752 1.8569888103 -1.0756067823 -1.1800578831 1.9111131235 -0.28459099472 -0.87072445802 
-0.41051894433 -0.46126398834 -2.0100647969 -0.13517785891 0.30781224507 -2.1074999508 0.55544025506 -0.32542404277 -1.7431457689 
-1.1494306047 -0.51037134919 -1.7014248619 -1.7777983226 0.30042148077 -1.1500981482 -1.1367141249 0.33913407382 -1.5488479373 
-0.5495260064 1.0761903077 -2.124165857 -0.88343244369 -1.4624364901 -1.7579667739 -2.6011870353 0.0420484213 -0.45712107525 
1.5471688148 0.01421455008 -1.6053377329 2.0426569391 0.014366536738 0.21742597183 1.3077004863 -1.8786134666 -0.53670047413 
-1.0402613671 -1.8982011685 0.36941994255 -1.1852509004 0.21462482113 1.6150563109 0.55461069905 -1.2855632896 1.7410914175 
0.61786737559 1.1740338348 1.7830266446 -0.9948550379 1.7129277381 0.28420147907 1.0538376623 1.9651391873 -0.31656530922 

POLYGONS 140 560
3 0 2 13 
3 0 13 64 
3 0 1 2 
3 0 53 1 
3 0 64 53 
3 1 5 3 
3 1 3 2 
3 1 4 5 
3 1 53 63 
3 1 63 4 
3 2 14 13 
3 2 71 14 
3 2 3 71 
3 3 7 71 
3 3 5 7 
3 4 56 55 
3 4 55 5 
3 4 63 56 
3 5 8 7 
3 5 55 60 
3 5 60 8 
3 6 15 70 
3 6 8 15 
3 6 11 10 
3 6 7 8 
3 6 70 11 
3 6 10 71 
3 6 71 7 
3 8 16 15 
3 8 60 16 
3 9 10 11 
3 9 14 10 
3 9 12 14 
3 9 69 12 
3 9 18 69 
3 9 11 18 
3 10 14 71 
3 11 19 18 
3 11 70 19 
3 12 69 27 
3 12 13 14 
3 12 29 13 
3 12 27 29 
3 13 29 64 
3 15 16 17 
3 15 17 21 
3 15 21 70 
3 16 58 17 
3 16 59 58 
3 16 60 59 
3 17 22 21 
3 17 58 62 
3 17 62 22 
3 18 19 20 
3 18 20 24 
3 18 24 69 
3 19 23 20 
3 19 21 23 
3 19 70 21 
3 20 23 67 
3 20 67 25 
3 20 25 24 
3 21 22 23 
3 22 40 39 
3 22 39 23 
3 22 62 40 
3 23 39 67 
3 24 27 69 
3 24 26 27 
3 24 25 26 
3 25 31 26 
3 25 32 31 
3 25 67 32 
3 26 28 27 
3 26 31 68 
3 26 68 28 
3 27 28 29 
3 28 36 38 
3 28 68 36 
3 28 38 29 
3 29 38 64 
3 30 41 66 
3 30 32 41 
3 30 31 32 
3 30 33 31 
3 30 34 33 
3 30 66 34 
3 31 33 68 
3 32 67 39 
3 32 39 41 
3 33 34 35 
3 33 36 68 
3 33 35 36 
3 34 43 35 
3 34 44 43 
3 34 66 44 
3 35 37 36 
3 35 43 65 
3 35 65 37 
3 36 37 38 
3 37 51 38 
3 37 65 51 
3 38 51 64 
3 39 40 41 
3 40 46 41 
3 40 47 46 
3 40 62 47 
3 41 46 66 
3 42 61 48 
3 42 43 44 
3 42 44 61 
3 42 48 50 
3 42 50 43 
3 43 50 65 
3 44 46 45 
3 44 45 61 
3 44 66 46 
3 45 57 61 
3 45 46 47 
3 45 47 57 
3 47 58 57 
3 47 62 58 
3 48 56 50 
3 48 54 56 
3 48 61 54 
3 49 63 52 
3 49 56 63 
3 49 52 50 
3 49 50 56 
3 50 52 65 
3 51 52 53 
3 51 53 64 
3 51 65 52 
3 52 63 53 
3 54 59 55 
3 54 57 59 
3 54 61 57 
3 54 55 56 
3 55 59 60 
3 57 58 59 

POINT_DATA 72
SCALARS PointIds vtkIdType
LOOKUP_TABLE default
0 1 2 3 4 5 6 7 8 
9 10 11 12 13 14 15 16 17 
18 19 20 21 22 23 24 25 26 
27 28 29 30 31 32 33 34 35 
36 37 38 39 40 41 42 43 44 
45 46 47 48 49 50 51 52 53 
54 55 56 57 58 59 60 61 62 
63 64 65 66 67 68 69 70 71 

NORMALS PointNormals double
0.97662742897 0.19454798124 -0.091378049723 0.63194921896 0.40924011722 -0.65815097897 0.76935765341 0.61703292937 -0.1654060616 
0.47823139366 0.63895080879 -0.60252518458 0.35605917339 0.23734086974 -0.90382032318 0.29867799349 0.51104228193 -0.80599456715 
-0.26249551643 0.96075034395 -0.089748985776 0.19416939643 0.80810361786 -0.55611760293 -0.35802638721 0.77735631591 -0.51723714501 
0.45735207552 0.7664627607 0.45095888445 0.26644424955 0.93297872428 0.24198793755 -0.047448720455 0.96023306486 0.27513829263 
0.68572986257 0.58146925342 0.4377991125 0.86430737 0.42738502248 0.26516940382 0.67440988276 0.67220341629 0.30547320204 
-0.66021756011 0.72623190823 -0.19157241134 -0.71135622426 0.46705192005 -0.52519979645 -0.81323827565 0.55850866977 -0.16343675478 
0.084581108594 0.72443449618 0.68413499897 -0.57028067078 0.69321104536 0.44072486103 -0.52577438497 0.24206911737 0.81545314919 
-0.80961012683 0.57897776518 0.096520412084 -0.93155102619 0.084116240737 0.35374728784 -0.75419177324 0.18220121508 0.63087041966 
0.081003615605 0.24039854489 0.96728845433 -0.33371948233 -0.057814142824 0.94089788606 0.24617869654 -0.26255540113 0.93298483948 
0.5336507557 0.26124572311 0.80434292631 0.62476323479 -0.38470704947 0.67946404359 0.90947499236 0.15231666339 0.38685252012 
-0.26226543665 -0.8891592164 0.37498363781 0.0055636573397 -0.58394420569 0.81177472883 -0.68397932195 -0.26509200489 0.6796311618 
0.16805670683 -0.91178015224 0.37471842399 0.014562630805 -0.97766764462 0.20965186967 0.40594879697 -0.87213232155 0.27311314129 
0.60263268709 -0.70010719018 0.38299316797 0.78830422833 -0.57836500384 0.20992943084 0.88198067635 -0.4012925462 0.24713231051 
-0.85084025352 -0.12578072044 0.51014710953 -0.89467088142 -0.41441282469 0.16681134459 -0.83212010109 -0.51761014994 0.19913781669 
0.0039649744636 -0.7907187381 -0.61216677155 0.081032788672 -0.97806851616 -0.19187408596 -0.37257906 -0.90891662704 -0.18723089791 
-0.70207079415 -0.52907134032 -0.4766341541 -0.78474532627 -0.61659173638 -0.0631617252 -0.83567876853 -0.29023982168 -0.46626370407 
0.16973445677 -0.4498332322 -0.87683537645 0.33902596045 -0.17422633498 -0.92450342473 0.15860570867 -0.6165212163 -0.77119765237 
0.92026586212 -0.3771072676 0.10440714413 0.85828123536 -0.35491423399 -0.37066050173 0.95799543766 -0.0030150095525 -0.28676759082 
-0.10669453416 -0.13800845592 -0.98466742735 0.060836912905 0.057087470028 -0.99651386884 0.19586113292 -0.1426689943 -0.9701979049 
-0.53605996177 -0.045103634782 -0.84297412743 -0.72254504818 0.18805185498 -0.66525570512 -0.5339117641 0.065646172801 -0.84298802373 
-0.27688103446 0.40650527196 -0.87068384424 -0.21194551894 -0.56305063725 -0.79878224623 -0.98128059446 0.076439182981 -0.17676381484 
0.59436898963 0.13567309864 -0.79266532312 0.99200862208 -0.013993426756 0.12539169718 0.67176196197 -0.74003867518 -0.032842437327 
-0.42094437698 -0.90696140442 0.015061287683 -0.70213793684 0.084479543551 0.70701168616 0.33929207427 -0.66159626582 0.66870865808 
0.53437560861 0.60660610115 0.58861850716 -0.54645964074 0.8323398779 -0.092694059631 0.45101177639 0.87372614364 -0.1821839825 

